VARIABLES = "x", "v"
ZONE T="timezone" SOLUTIONTIME=0
I = 40, F=POINT
0.025 1
0.05 1
0.075 1
0.1 1
0.125 1
0.15 1
0.175 1
0.2 1
0.225 1
0.25 1
0.275 1
0.3 1
0.325 1
0.35 1
0.375 1
0.4 1
0.425 1
0.45 1
0.475 1
0.5 1
0.525 -1
0.55 -1
0.575 -1
0.6 -1
0.625 -1
0.65 -1
0.675 -1
0.7 -1
0.725 -1
0.75 -1
0.775 -1
0.8 -1
0.825 -1
0.85 -1
0.875 -1
0.9 -1
0.925 -1
0.95 -1
0.975 -1
1 -1
