VARIABLES = "x", "v"
ZONE T="timezone" SOLUTIONTIME=0
I = 200, F=POINT
-0.99 0
-0.98 0
-0.97 0
-0.96 0
-0.95 0
-0.94 0
-0.93 0
-0.92 0
-0.91 0
-0.9 0
-0.89 0
-0.88 0
-0.87 0
-0.86 0
-0.85 0
-0.84 0
-0.83 0
-0.82 0
-0.81 0.0021
-0.8 0.007651
-0.79 0.02394
-0.78 0.06432
-0.77 0.1485
-0.76 0.2943
-0.75 0.5012
-0.74 0.7331
-0.73 0.9209
-0.72 0.9936
-0.71 0.9209
-0.7 0.7331
-0.69 0.5012
-0.68 0.2943
-0.67 0.1485
-0.66 0.06432
-0.65 0.02394
-0.64 0.007651
-0.63 0.0021
-0.62 0.0004953
-0.61 0
-0.6 0
-0.59 0
-0.58 0
-0.57 0
-0.56 0
-0.55 0
-0.54 0
-0.53 0
-0.52 0
-0.51 0
-0.5 0
-0.49 0
-0.48 0
-0.47 0
-0.46 0
-0.45 0
-0.44 0
-0.43 0
-0.42 0
-0.41 1
-0.4 1
-0.39 1
-0.38 1
-0.37 1
-0.36 1
-0.35 1
-0.34 1
-0.33 1
-0.32 1
-0.31 1
-0.3 1
-0.29 1
-0.28 1
-0.27 1
-0.26 1
-0.25 1
-0.24 1
-0.23 1
-0.22 1
-0.21 0
-0.2 0
-0.19 0
-0.18 0
-0.17 0
-0.16 0
-0.15 0
-0.14 0
-0.13 0
-0.12 0
-0.11 0
-0.1 0
-0.09 0
-0.08 0
-0.07 0
-0.06 0
-0.05 0
-0.04 0
-0.03 0
-0.02 0
-0.01 0.1
0 0.2
0.01 0.3
0.02 0.4
0.03 0.5
0.04 0.6
0.05 0.7
0.06 0.8
0.07 0.9
0.08 1
0.09 0.9
0.1 0.8
0.11 0.7
0.12 0.6
0.13 0.5
0.14 0.4
0.15 0.3
0.16 0.2
0.17 0.1
0.18 7.153e-07
0.19 0
0.2 0
0.21 0
0.22 0
0.23 0
0.24 0
0.25 0
0.26 0
0.27 0
0.28 0
0.29 0
0.3 0
0.31 0
0.32 0
0.33 0
0.34 0
0.35 0
0.36 0
0.37 0
0.38 0
0.39 0.4304
0.4 0.598
0.41 0.713
0.42 0.7992
0.43 0.8654
0.44 0.916
0.45 0.9535
0.46 0.9794
0.47 0.9946
0.48 0.9996
0.49 0.9946
0.5 0.9794
0.51 0.9535
0.52 0.916
0.53 0.8654
0.54 0.7992
0.55 0.713
0.56 0.598
0.57 0.4304
0.58 0.05296
0.59 0
0.6 0
0.61 0
0.62 0
0.63 0
0.64 0
0.65 0
0.66 0
0.67 0
0.68 0
0.69 0
0.7 0
0.71 0
0.72 0
0.73 0
0.74 0
0.75 0
0.76 0
0.77 0
0.78 0
0.79 0
0.8 0
0.81 0
0.82 0
0.83 0
0.84 0
0.85 0
0.86 0
0.87 0
0.88 0
0.89 0
0.9 0
0.91 0
0.92 0
0.93 0
0.94 0
0.95 0
0.96 0
0.97 0
0.98 0
0.99 0
1 0
ZONE T="timezone" SOLUTIONTIME=0.004
I = 200, F=POINT
-0.99 0
-0.98 0
-0.97 0
-0.96 0
-0.95 0
-0.94 0
-0.93 0
-0.92 0
-0.91 0
-0.9 0
-0.89 0
-0.88 0
-0.87 0
-0.86 0
-0.85 0
-0.84 1.381e-05
-0.83 7.901e-05
-0.82 0.001183
-0.81 0.003443
-0.8 0.0198
-0.79 0.06161
-0.78 0.1317
-0.77 0.2211
-0.76 0.3646
-0.75 0.5683
-0.74 0.7658
-0.73 0.8715
-0.72 0.957
-0.71 0.8642
-0.7 0.6544
-0.69 0.4379
-0.68 0.2515
-0.67 0.1246
-0.66 0.05584
-0.65 0.0219
-0.64 0.007134
-0.63 0.002082
-0.62 0.0004357
-0.61 8.632e-06
-0.6 -3.919e-06
-0.59 0
-0.58 0
-0.57 0
-0.56 0
-0.55 0
-0.54 0
-0.53 0
-0.52 0
-0.51 0
-0.5 0
-0.49 0
-0.48 0
-0.47 0
-0.46 0
-0.45 0
-0.44 1.768e-13
-0.43 3.452e-13
-0.42 0.4
-0.41 1
-0.4 1
-0.39 1
-0.38 1
-0.37 1
-0.36 1
-0.35 1
-0.34 1
-0.33 1
-0.32 1
-0.31 1
-0.3 1
-0.29 1
-0.28 1
-0.27 1
-0.26 1
-0.25 1
-0.24 1
-0.23 1
-0.22 0.6
-0.21 6.933e-14
-0.2 -8.333e-15
-0.19 0
-0.18 0
-0.17 0
-0.16 0
-0.15 0
-0.14 0
-0.13 0
-0.12 0
-0.11 0
-0.1 0
-0.09 0
-0.08 0
-0.07 0
-0.06 0
-0.05 0
-0.04 1.768e-10
-0.03 3.273e-09
-0.02 0.08574
-0.01 0.1303
0 0.24
0.01 0.34
0.02 0.44
0.03 0.54
0.04 0.64
0.05 0.74
0.06 0.8122
0.07 0.8479
0.08 0.9973
0.09 0.8705
0.1 0.76
0.11 0.66
0.12 0.56
0.13 0.46
0.14 0.36
0.15 0.26
0.16 0.1868
0.17 0.06924
0.18 5.88e-07
0.19 4.132e-08
0.2 -9.537e-09
0.21 0
0.22 0
0.23 0
0.24 0
0.25 0
0.26 0
0.27 0
0.28 0
0.29 0
0.3 0
0.31 0
0.32 0
0.33 0
0.34 0
0.35 0
0.36 2.217e-12
0.37 8.102e-12
0.38 0.2923
0.39 0.4332
0.4 0.617
0.41 0.7396
0.42 0.8202
0.43 0.8811
0.44 0.9269
0.45 0.96
0.46 0.9817
0.47 0.993
0.48 0.9939
0.49 0.9844
0.5 0.9644
0.51 0.9331
0.52 0.889
0.53 0.8297
0.54 0.7509
0.55 0.6874
0.56 0.591
0.57 0.2367
0.58 0.04595
0.59 5.591e-10
0.6 -5.606e-11
0.61 0
0.62 0
0.63 0
0.64 0
0.65 0
0.66 0
0.67 0
0.68 0
0.69 0
0.7 0
0.71 0
0.72 0
0.73 0
0.74 0
0.75 0
0.76 0
0.77 0
0.78 0
0.79 0
0.8 0
0.81 0
0.82 0
0.83 0
0.84 0
0.85 0
0.86 0
0.87 0
0.88 0
0.89 0
0.9 0
0.91 0
0.92 0
0.93 0
0.94 0
0.95 0
0.96 0
0.97 0
0.98 0
0.99 0
1 0
ZONE T="timezone" SOLUTIONTIME=0.008
I = 200, F=POINT
-0.99 0
-0.98 0
-0.97 0
-0.96 0
-0.95 0
-0.94 0
-0.93 0
-0.92 0
-0.91 0
-0.9 0
-0.89 0
-0.88 0
-0.87 3.038e-06
-0.86 1.346e-05
-0.85 5.465e-05
-0.84 0.0003601
-0.83 0.0003613
-0.82 0.0007065
-0.81 0.02489
-0.8 0.05174
-0.79 0.1058
-0.78 0.1714
-0.77 0.2861
-0.76 0.4321
-0.75 0.6721
-0.74 0.7502
-0.73 0.8138
-0.72 0.9214
-0.71 0.7854
-0.7 0.5943
-0.69 0.3788
-0.68 0.2113
-0.67 0.107
-0.66 0.04956
-0.65 0.01952
-0.64 0.006747
-0.63 0.002006
-0.62 0.000386
-0.61 1.658e-05
-0.6 -6.677e-06
-0.59 -1.935e-07
-0.58 5.225e-08
-0.57 0
-0.56 0
-0.55 0
-0.54 0
-0.53 0
-0.52 0
-0.51 0
-0.5 0
-0.49 0
-0.48 0
-0.47 3.889e-14
-0.46 2.645e-14
-0.45 2.785e-12
-0.44 9.664e-11
-0.43 0.2545
-0.42 0.5455
-0.41 1
-0.4 1
-0.39 1
-0.38 1
-0.37 1
-0.36 1
-0.35 1
-0.34 1
-0.33 1
-0.32 1
-0.31 1
-0.3 1
-0.29 1
-0.28 1
-0.27 1
-0.26 1
-0.25 1
-0.24 1
-0.23 0.7455
-0.22 0.4545
-0.21 4.607e-14
-0.2 -4.063e-14
-0.19 -1.091e-15
-0.18 1.111e-16
-0.17 0
-0.16 0
-0.15 0
-0.14 0
-0.13 0
-0.12 0
-0.11 0
-0.1 0
-0.09 0
-0.08 0
-0.07 3.889e-11
-0.06 6.705e-10
-0.05 -6.137e-12
-0.04 9.905e-10
-0.03 0.0818
-0.02 0.04439
-0.01 0.2345
0 0.2653
0.01 0.382
0.02 0.48
0.03 0.5656
0.04 0.676
0.05 0.7567
0.06 0.7964
0.07 0.8282
0.08 0.9989
0.09 0.8388
0.1 0.7255
0.11 0.6179
0.12 0.52
0.13 0.434
0.14 0.2773
0.15 0.3052
0.16 0.1155
0.17 0.05603
0.18 5.209e-07
0.19 6.111e-08
0.2 -1.426e-08
0.21 -7.416e-10
0.22 1.272e-10
0.23 0
0.24 0
0.25 0
0.26 0
0.27 0
0.28 0
0.29 0
0.3 0
0.31 0
0.32 0
0.33 4.877e-13
0.34 1.162e-12
0.35 6.97e-12
0.36 3.303e-11
0.37 0.2764
0.38 0.2192
0.39 0.5264
0.4 0.6499
0.41 0.758
0.42 0.8387
0.43 0.8949
0.44 0.9362
0.45 0.9647
0.46 0.9825
0.47 0.9896
0.48 0.9865
0.49 0.9721
0.5 0.9466
0.51 0.909
0.52 0.8751
0.53 0.7627
0.54 0.7851
0.55 0.6834
0.56 0.3466
0.57 0.209
0.58 0.03891
0.59 1.249e-09
0.6 -9.43e-11
0.61 -8.575e-12
0.62 7.475e-13
0.63 0
0.64 0
0.65 0
0.66 0
0.67 0
0.68 0
0.69 0
0.7 0
0.71 0
0.72 0
0.73 0
0.74 0
0.75 0
0.76 0
0.77 0
0.78 0
0.79 0
0.8 0
0.81 0
0.82 0
0.83 0
0.84 0
0.85 0
0.86 0
0.87 0
0.88 0
0.89 0
0.9 0
0.91 0
0.92 0
0.93 0
0.94 0
0.95 0
0.96 0
0.97 0
0.98 0
0.99 0
1 0
ZONE T="timezone" SOLUTIONTIME=0.012
I = 200, F=POINT
-0.99 0
-0.98 0
-0.97 0
-0.96 0
-0.95 0
-0.94 0
-0.93 0
-0.92 0
-0.91 0
-0.9 6.683e-07
-0.89 2.11e-06
-0.88 9.134e-06
-0.87 6.278e-05
-0.86 7.714e-06
-0.85 0.000208
-0.84 0.0003183
-0.83 0.0003058
-0.82 0.02304
-0.81 0.02809
-0.8 0.1016
-0.79 0.1265
-0.78 0.263
-0.77 0.2765
-0.76 0.5882
-0.75 0.691
-0.74 0.7081
-0.73 0.7274
-0.72 0.9253
-0.71 0.7403
-0.7 0.5134
-0.69 0.3295
-0.68 0.1802
-0.67 0.09421
-0.66 0.04275
-0.65 0.0175
-0.64 0.006387
-0.63 0.001893
-0.62 0.0003475
-0.61 2.21e-05
-0.6 -8.603e-06
-0.59 -4.864e-07
-0.58 1.249e-07
-0.57 3.625e-09
-0.56 -6.967e-10
-0.55 0
-0.54 0
-0.53 0
-0.52 0
-0.51 0
-0.5 8.556e-15
-0.49 -5.072e-15
-0.48 6.167e-13
-0.47 2.052e-11
-0.46 1.471e-12
-0.45 2.599e-10
-0.44 0.2786
-0.43 0.1935
-0.42 0.7279
-0.41 1
-0.4 1
-0.39 1
-0.38 1
-0.37 1
-0.36 1
-0.35 1
-0.34 1
-0.33 1
-0.32 1
-0.31 1
-0.3 1
-0.29 1
-0.28 1
-0.27 1
-0.26 1
-0.25 1
-0.24 0.7214
-0.23 0.8065
-0.22 0.2721
-0.21 6.118e-14
-0.2 -1.16e-13
-0.19 -2.224e-15
-0.18 6.044e-16
-0.17 1.677e-17
-0.16 -1.481e-18
-0.15 0
-0.14 0
-0.13 0
-0.12 0
-0.11 0
-0.1 8.555e-12
-0.09 1.366e-10
-0.08 -1.777e-10
-0.07 4.458e-10
-0.06 7.247e-10
-0.05 3.948e-10
-0.04 0.03259
-0.03 0.08654
-0.02 0.1885
-0.01 0.1966
0 0.3191
0.01 0.4278
0.02 0.4725
0.03 0.6227
0.04 0.7122
0.05 0.7514
0.06 0.7842
0.07 0.81
0.08 0.9698
0.09 0.8345
0.1 0.6806
0.11 0.5601
0.12 0.5581
0.13 0.3375
0.14 0.2699
0.15 0.2039
0.16 0.1365
0.17 0.04489
0.18 4.835e-07
0.19 7.043e-08
0.2 -1.681e-08
0.21 -1.626e-09
0.22 2.72e-10
0.23 1.243e-11
0.24 -1.695e-12
0.25 0
0.26 0
0.27 0
0.28 0
0.29 0
0.3 1.073e-13
0.31 1.19e-13
0.32 1.351e-12
0.33 6.027e-12
0.34 8.115e-12
0.35 1.543e-11
0.36 0.1506
0.37 0.2763
0.38 0.3852
0.39 0.5084
0.4 0.6797
0.41 0.7852
0.42 0.8533
0.43 0.9074
0.44 0.9432
0.45 0.968
0.46 0.9823
0.47 0.9836
0.48 0.9764
0.49 0.9647
0.5 0.9341
0.51 0.9214
0.52 0.7925
0.53 0.7684
0.54 0.7538
0.55 0.4059
0.56 0.4194
0.57 0.1583
0.58 0.03339
0.59 2.342e-09
0.6 -1.405e-10
0.61 -2.483e-11
0.62 1.654e-12
0.63 1.293e-13
0.64 -9.967e-15
0.65 0
0.66 0
0.67 0
0.68 0
0.69 0
0.7 0
0.71 0
0.72 0
0.73 0
0.74 0
0.75 0
0.76 0
0.77 0
0.78 0
0.79 0
0.8 0
0.81 0
0.82 0
0.83 0
0.84 0
0.85 0
0.86 0
0.87 0
0.88 0
0.89 0
0.9 0
0.91 0
0.92 0
0.93 0
0.94 0
0.95 0
0.96 0
0.97 0
0.98 0
0.99 0
1 0
ZONE T="timezone" SOLUTIONTIME=0.016
I = 200, F=POINT
-0.99 0
-0.98 0
-0.97 0
-0.96 0
-0.95 0
-0.94 0
-0.93 1.47e-07
-0.92 2.77e-07
-0.91 1.615e-06
-0.9 1.234e-05
-0.89 -1.126e-05
-0.88 6.381e-05
-0.87 6.674e-05
-0.86 4.86e-05
-0.85 0.0002291
-0.84 0.0003109
-0.83 0.01161
-0.82 0.01785
-0.81 0.07558
-0.8 0.08107
-0.79 0.2109
-0.78 0.2429
-0.77 0.4528
-0.76 0.6095
-0.75 0.6828
-0.74 0.7008
-0.73 0.6167
-0.72 0.9804
-0.71 0.6497
-0.7 0.4823
-0.69 0.2659
-0.68 0.1629
-0.67 0.08038
-0.66 0.03711
-0.65 0.01595
-0.64 0.005965
-0.63 0.001759
-0.62 0.0003188
-0.61 2.495e-05
-0.6 -9.945e-06
-0.59 -8.01e-07
-0.58 2.011e-07
-0.57 1.153e-08
-0.56 -2.122e-09
-0.55 -6.227e-11
-0.54 9.289e-12
-0.53 1.882e-15
-0.52 -3.512e-15
-0.51 1.396e-13
-0.5 4.346e-12
-0.49 -5.244e-12
-0.48 6.325e-11
-0.47 -3.256e-12
-0.46 -2.964e-11
-0.45 0.1232
-0.44 0.3271
-0.43 0.3836
-0.42 0.7661
-0.41 1
-0.4 1
-0.39 1
-0.38 1
-0.37 1
-0.36 1
-0.35 1
-0.34 1
-0.33 1
-0.32 1
-0.31 1
-0.3 1
-0.29 1
-0.28 1
-0.27 1
-0.26 1
-0.25 0.8768
-0.24 0.6729
-0.23 0.6164
-0.22 0.2339
-0.21 -3.318e-12
-0.2 -4.95e-13
-0.19 -4.654e-15
-0.18 1.967e-15
-0.17 5.405e-17
-0.16 -8.849e-18
-0.15 -2.532e-19
-0.14 1.975e-20
-0.13 1.882e-12
-0.12 2.766e-11
-0.11 -7.483e-11
-0.1 1.944e-10
-0.09 8.649e-11
-0.08 -1.177e-10
-0.07 5.631e-09
-0.06 1.608e-07
-0.05 0.03573
-0.04 0.03261
-0.03 0.1482
-0.02 0.2064
-0.01 0.2359
0 0.3664
0.01 0.3967
0.02 0.5837
0.03 0.6556
0.04 0.7105
0.05 0.754
0.06 0.7762
0.07 0.7502
0.08 1.007
0.09 0.8042
0.1 0.6615
0.11 0.544
0.12 0.4084
0.13 0.3439
0.14 0.24
0.15 0.2075
0.16 0.09535
0.17 0.03647
0.18 4.618e-07
0.19 7.453e-08
0.2 -1.837e-08
0.21 -2.435e-09
0.22 4.025e-10
0.23 3.607e-11
0.24 -4.666e-12
0.25 -1.997e-13
0.26 2.261e-14
0.27 2.36e-14
0.28 -3.856e-15
0.29 2.954e-13
0.3 1.064e-12
0.31 5.868e-13
0.32 3.919e-12
0.33 5.741e-11
0.34 6.198e-10
0.35 0.118
0.36 0.1985
0.37 0.3179
0.38 0.3975
0.39 0.608
0.4 0.7065
0.41 0.7936
0.42 0.8746
0.43 0.9152
0.44 0.9484
0.45 0.9685
0.46 0.9793
0.47 0.985
0.48 0.9771
0.49 0.9464
0.5 0.9422
0.51 0.8428
0.52 0.7963
0.53 0.7761
0.54 0.4925
0.55 0.465
0.56 0.3275
0.57 0.1457
0.58 0.02857
0.59 3.952e-09
0.6 -1.983e-10
0.61 -5.246e-11
0.62 2.674e-12
0.63 4.595e-13
0.64 -2.704e-14
0.65 -1.923e-15
0.66 1.329e-16
0.67 0
0.68 0
0.69 0
0.7 0
0.71 0
0.72 0
0.73 0
0.74 0
0.75 0
0.76 0
0.77 0
0.78 0
0.79 0
0.8 0
0.81 0
0.82 0
0.83 0
0.84 0
0.85 0
0.86 0
0.87 0
0.88 0
0.89 0
0.9 0
0.91 0
0.92 0
0.93 0
0.94 0
0.95 0
0.96 0
0.97 0
0.98 0
0.99 0
1 0
ZONE T="timezone" SOLUTIONTIME=0.02
I = 200, F=POINT
-0.99 0
-0.98 0
-0.97 0
-0.96 3.234e-08
-0.95 1.978e-08
-0.94 3.208e-07
-0.93 2.455e-06
-0.92 -5.232e-06
-0.91 2.171e-05
-0.9 3.191e-06
-0.89 2.497e-06
-0.88 0.0001015
-0.87 7.267e-05
-0.86 8.492e-05
-0.85 0.0001902
-0.84 0.006428
-0.83 0.008161
-0.82 0.05082
-0.81 0.06676
-0.8 0.164
-0.79 0.1934
-0.78 0.3793
-0.77 0.4853
-0.76 0.6219
-0.75 0.6742
-0.74 0.7197
-0.73 0.5575
-0.72 0.8307
-0.71 0.7455
-0.7 0.3438
-0.69 0.2774
-0.68 0.1361
-0.67 0.06945
-0.66 0.03347
-0.65 0.01443
-0.64 0.005485
-0.63 0.001622
-0.62 0.0002971
-0.61 2.544e-05
-0.6 -1.088e-05
-0.59 -1.085e-06
-0.58 2.734e-07
-0.57 2.286e-08
-0.56 -4.084e-09
-0.55 -2.408e-10
-0.54 3.414e-11
-0.53 1.934e-12
-0.52 -2.456e-12
-0.51 1.676e-11
-0.5 -1.666e-11
-0.49 9.043e-12
-0.48 1.442e-10
-0.47 2.982e-09
-0.46 0.08159
-0.45 0.1989
-0.44 0.2904
-0.43 0.6243
-0.42 0.8048
-0.41 1
-0.4 1
-0.39 1
-0.38 1
-0.37 1
-0.36 1
-0.35 1
-0.34 1
-0.33 1
-0.32 1
-0.31 1
-0.3 1
-0.29 1
-0.28 1
-0.27 1
-0.26 0.9184
-0.25 0.8011
-0.24 0.7096
-0.23 0.3757
-0.22 0.1952
-0.21 -1.845e-11
-0.2 -1.205e-12
-0.19 3.136e-14
-0.18 8.021e-15
-0.17 1.399e-16
-0.16 4.14e-13
-0.15 5.558e-12
-0.14 -2.366e-11
-0.13 7.327e-11
-0.12 -3.63e-11
-0.11 -4.943e-11
-0.1 1.443e-09
-0.09 3.384e-08
-0.08 -1.133e-08
-0.07 -1.619e-08
-0.06 0.01605
-0.05 0.03239
-0.04 0.1077
-0.03 0.1502
-0.02 0.1905
-0.01 0.3393
0 0.341
0.01 0.5341
0.02 0.5813
0.03 0.6603
0.04 0.7208
0.05 0.7501
0.06 0.7876
0.07 0.7019
0.08 0.9907
0.09 0.7585
0.1 0.6719
0.11 0.4132
0.12 0.4626
0.13 0.257
0.14 0.2741
0.15 0.1329
0.16 0.09815
0.17 0.02769
0.18 4.442e-07
0.19 7.599e-08
0.2 -1.944e-08
0.21 -3.105e-09
0.22 5.139e-10
0.23 6.663e-11
0.24 -8.251e-12
0.25 -7.269e-13
0.26 1.484e-13
0.27 1.713e-13
0.28 -8.494e-14
0.29 1.234e-12
0.3 1.252e-11
0.31 1.219e-10
0.32 6.422e-11
0.33 7.762e-10
0.34 0.128
0.35 0.06567
0.36 0.2893
0.37 0.2675
0.38 0.6048
0.39 0.6051
0.4 0.715
0.41 0.8422
0.42 0.8722
0.43 0.9256
0.44 0.9543
0.45 0.9693
0.46 0.9773
0.47 0.984
0.48 0.9641
0.49 0.9522
0.5 0.8753
0.51 0.8423
0.52 0.8078
0.53 0.5426
0.54 0.4984
0.55 0.4557
0.56 0.2694
0.57 0.1195
0.58 0.02363
0.59 6.586e-09
0.6 -2.887e-10
0.61 -9.588e-11
0.62 3.769e-12
0.63 1.095e-12
0.64 -4.762e-14
0.65 -8.09e-15
0.66 4.231e-16
0.67 2.83e-17
0.68 -1.772e-18
0.69 0
0.7 0
0.71 0
0.72 0
0.73 0
0.74 0
0.75 0
0.76 0
0.77 0
0.78 0
0.79 0
0.8 0
0.81 0
0.82 0
0.83 0
0.84 0
0.85 0
0.86 0
0.87 0
0.88 0
0.89 0
0.9 0
0.91 0
0.92 0
0.93 0
0.94 0
0.95 0
0.96 0
0.97 0
0.98 0
0.99 0
1 0
ZONE T="timezone" SOLUTIONTIME=0.024
I = 200, F=POINT
-0.99 7.116e-09
-0.98 -4.704e-09
-0.97 7.452e-08
-0.96 4.806e-07
-0.95 -1.728e-06
-0.94 7.191e-06
-0.93 -5.013e-06
-0.92 2.08e-06
-0.91 3.856e-05
-0.9 -8.34e-06
-0.89 2.988e-05
-0.88 0.0001162
-0.87 6.696e-05
-0.86 6.622e-05
-0.85 0.003331
-0.84 0.00489
-0.83 0.03302
-0.82 0.03903
-0.81 0.133
-0.8 0.1416
-0.79 0.3964
-0.78 0.3167
-0.77 0.5795
-0.76 0.6069
-0.75 0.6556
-0.74 0.7204
-0.73 0.4878
-0.72 0.8787
-0.71 0.5231
-0.7 0.4096
-0.69 0.2142
-0.68 0.1289
-0.67 0.06376
-0.66 0.02937
-0.65 0.01298
-0.64 0.00502
-0.63 0.001489
-0.62 0.0002795
-0.61 2.402e-05
-0.6 -1.155e-05
-0.59 -1.309e-06
-0.58 3.39e-07
-0.57 3.619e-08
-0.56 -6.371e-09
-0.55 -5.606e-10
-0.54 8.053e-11
-0.53 -3.716e-12
-0.52 9.288e-12
-0.51 3.698e-11
-0.5 6.06e-10
-0.49 6.485e-11
-0.48 1.102e-08
-0.47 0.06432
-0.46 0.116
-0.45 0.1616
-0.44 0.6431
-0.43 0.5485
-0.42 0.8666
-0.41 1
-0.4 1
-0.39 1
-0.38 1
-0.37 1
-0.36 1
-0.35 1
-0.34 1
-0.33 1
-0.32 1
-0.31 1
-0.3 1
-0.29 1
-0.28 1
-0.27 0.9357
-0.26 0.884
-0.25 0.8384
-0.24 0.3569
-0.23 0.4515
-0.22 0.1334
-0.21 -2.738e-11
-0.2 -3.054e-12
-0.19 3.391e-13
-0.18 1.13e-12
-0.17 -6.639e-12
-0.16 2.469e-11
-0.15 -3.121e-11
-0.14 2.909e-12
-0.13 3.758e-10
-0.12 7.001e-09
-0.11 -1.158e-08
-0.1 1.063e-08
-0.09 6.608e-08
-0.08 8.179e-07
-0.07 0.009626
-0.06 0.01002
-0.05 0.1048
-0.04 0.09612
-0.03 0.139
-0.02 0.2992
-0.01 0.3307
0 0.4715
0.01 0.5045
0.02 0.608
0.03 0.6992
0.04 0.7042
0.05 0.7414
0.06 0.8072
0.07 0.6851
0.08 0.8712
0.09 0.8694
0.1 0.4996
0.11 0.4573
0.12 0.3425
0.13 0.3025
0.14 0.1812
0.15 0.1664
0.16 0.07579
0.17 0.02372
0.18 4.379e-07
0.19 7.572e-08
0.2 -2.022e-08
0.21 -3.632e-09
0.22 6.094e-10
0.23 1.001e-10
0.24 -1.201e-11
0.25 -1.629e-12
0.26 5.538e-13
0.27 2.527e-12
0.28 2.361e-11
0.29 -1.539e-11
0.3 1.981e-10
0.31 1.164e-10
0.32 7.042e-11
0.33 0.05279
0.34 0.1254
0.35 0.1595
0.36 0.2758
0.37 0.4581
0.38 0.5979
0.39 0.6013
0.4 0.7882
0.41 0.8188
0.42 0.8951
0.43 0.9306
0.44 0.9591
0.45 0.9678
0.46 0.975
0.47 0.9774
0.48 0.9705
0.49 0.8812
0.5 0.8887
0.51 0.8543
0.52 0.6383
0.53 0.5589
0.54 0.5146
0.55 0.3056
0.56 0.2465
0.57 0.09027
0.58 0.01952
0.59 1.135e-08
0.6 -4.89e-10
0.61 -1.657e-10
0.62 5.13e-12
0.63 2.174e-12
0.64 -6.704e-14
0.65 -2.158e-14
0.66 8.035e-16
0.67 1.373e-16
0.68 -6.422e-18
0.69 -4.128e-19
0.7 2.362e-20
0.71 0
0.72 0
0.73 0
0.74 0
0.75 0
0.76 0
0.77 0
0.78 0
0.79 0
0.8 0
0.81 0
0.82 0
0.83 0
0.84 0
0.85 0
0.86 0
0.87 0
0.88 0
0.89 0
0.9 0
0.91 0
0.92 0
0.93 0
0.94 0
0.95 0
0.96 0
0.97 0
0.98 0
0.99 0
1 0
ZONE T="timezone" SOLUTIONTIME=0.028
I = 200, F=POINT
-0.99 8.89e-08
-0.98 -4.964e-07
-0.97 2.263e-06
-0.96 -3.254e-06
-0.95 2.663e-06
-0.94 1.185e-05
-0.93 -1.551e-05
-0.92 2.137e-05
-0.91 4.442e-05
-0.9 -1.443e-05
-0.89 5.149e-05
-0.88 0.0001088
-0.87 9.444e-05
-0.86 0.001744
-0.85 0.00239
-0.84 0.01992
-0.83 0.02659
-0.82 0.09058
-0.81 0.1156
-0.8 0.2861
-0.79 0.373
-0.78 0.4269
-0.77 0.5732
-0.76 0.6082
-0.75 0.6375
-0.74 0.7135
-0.73 0.4656
-0.72 0.6948
-0.71 0.6134
-0.7 0.3035
-0.69 0.2235
-0.68 0.1106
-0.67 0.05429
-0.66 0.02673
-0.65 0.01184
-0.64 0.004538
-0.63 0.001363
-0.62 0.0002638
-0.61 2.108e-05
-0.6 -1.203e-05
-0.59 -1.458e-06
-0.58 3.977e-07
-0.57 5.004e-08
-0.56 -8.826e-09
-0.55 -1.009e-09
-0.54 1.394e-10
-0.53 1.32e-10
-0.52 -1.387e-10
-0.51 2.613e-09
-0.5 -1.966e-11
-0.49 5.37e-09
-0.48 0.05116
-0.47 0.06222
-0.46 0.1034
-0.45 0.489
-0.44 0.5791
-0.43 0.6319
-0.42 0.8832
-0.41 1
-0.4 1
-0.39 1
-0.38 1
-0.37 1
-0.36 1
-0.35 1
-0.34 1
-0.33 1
-0.32 1
-0.31 1
-0.3 1
-0.29 1
-0.28 0.9488
-0.27 0.9378
-0.26 0.8966
-0.25 0.511
-0.24 0.4209
-0.23 0.3681
-0.22 0.1168
-0.21 -1.304e-11
-0.2 -9.012e-12
-0.19 8.183e-12
-0.18 -1.482e-11
-0.17 1.159e-11
-0.16 9.132e-11
-0.15 1.413e-09
-0.14 -4.397e-09
-0.13 7.922e-09
-0.12 1.349e-08
-0.11 1.559e-07
-0.1 1.386e-07
-0.09 3.23e-07
-0.08 0.004426
-0.07 0.007749
-0.06 0.07447
-0.05 0.08397
-0.04 0.1036
-0.03 0.2831
-0.02 0.2486
-0.01 0.4475
0 0.4405
0.01 0.5327
0.02 0.6538
0.03 0.6995
0.04 0.7013
0.05 0.729
0.06 0.8184
0.07 0.7328
0.08 0.8339
0.09 0.6604
0.1 0.5568
0.11 0.3703
0.12 0.3929
0.13 0.1953
0.14 0.2105
0.15 0.1288
0.16 0.07191
0.17 0.01792
0.18 4.306e-07
0.19 7.487e-08
0.2 -2.091e-08
0.21 -4.026e-09
0.22 6.925e-10
0.23 1.338e-10
0.24 -1.533e-11
0.25 1.836e-12
0.26 -8.708e-12
0.27 5.676e-11
0.28 -1.639e-11
0.29 2.975e-11
0.3 1.382e-09
0.31 4.134e-08
0.32 0.03569
0.33 0.08657
0.34 0.1102
0.35 0.2571
0.36 0.3331
0.37 0.4851
0.38 0.6151
0.39 0.7272
0.4 0.7518
0.41 0.8607
0.42 0.8887
0.43 0.9433
0.44 0.9572
0.45 0.9686
0.46 0.9745
0.47 0.9792
0.48 0.9107
0.49 0.9012
0.5 0.891
0.51 0.7061
0.52 0.6441
0.53 0.5841
0.54 0.2824
0.55 0.378
0.56 0.1795
0.57 0.08352
0.58 0.0168
0.59 1.951e-08
0.6 -8.659e-10
0.61 -2.861e-10
0.62 7.757e-12
0.63 3.95e-12
0.64 -8.239e-14
0.65 -4.654e-14
0.66 1.115e-15
0.67 4.064e-16
0.68 -1.297e-17
0.69 -2.266e-18
0.7 9.532e-20
0.71 5.976e-21
0.72 -3.15e-22
0.73 0
0.74 0
0.75 0
0.76 0
0.77 0
0.78 0
0.79 0
0.8 0
0.81 0
0.82 0
0.83 0
0.84 0
0.85 0
0.86 0
0.87 0
0.88 0
0.89 0
0.9 0
0.91 0
0.92 0
0.93 0
0.94 0
0.95 0
0.96 0
0.97 0
0.98 1.565e-09
0.99 -3.027e-09
1 0
ZONE T="timezone" SOLUTIONTIME=0.032
I = 200, F=POINT
-0.99 -1.427e-06
-0.98 1.785e-06
-0.97 2.616e-06
-0.96 -8.354e-06
-0.95 1.437e-05
-0.94 8.429e-06
-0.93 -2.078e-05
-0.92 4.357e-05
-0.91 4.037e-05
-0.9 -5.039e-06
-0.89 8.753e-05
-0.88 0.000174
-0.87 0.0008426
-0.86 0.001303
-0.85 0.01196
-0.84 0.0152
-0.83 0.06585
-0.82 0.07316
-0.81 0.2521
-0.8 0.2991
-0.79 0.3369
-0.78 0.5464
-0.77 0.5679
-0.76 0.5935
-0.75 0.6444
-0.74 0.6704
-0.73 0.3808
-0.72 0.7706
-0.71 0.4364
-0.7 0.3507
-0.69 0.1773
-0.68 0.1002
-0.67 0.0507
-0.66 0.02399
-0.65 0.01051
-0.64 0.004118
-0.63 0.001253
-0.62 0.0002482
-0.61 1.699e-05
-0.6 -1.237e-05
-0.59 -1.53e-06
-0.58 4.504e-07
-0.57 6.315e-08
-0.56 -1.132e-08
-0.55 -1.637e-09
-0.54 8.558e-10
-0.53 -6.601e-10
-0.52 1.849e-09
-0.51 2.718e-09
-0.5 2.828e-09
-0.49 0.04739
-0.48 0.03268
-0.47 0.0543
-0.46 0.3402
-0.45 0.4778
-0.44 0.5497
-0.43 0.7983
-0.42 0.8997
-0.41 1
-0.4 1
-0.39 1
-0.38 1
-0.37 1
-0.36 1
-0.35 1
-0.34 1
-0.33 1
-0.32 1
-0.31 1
-0.3 1
-0.29 0.9526
-0.28 0.9673
-0.27 0.9457
-0.26 0.6598
-0.25 0.5222
-0.24 0.4503
-0.23 0.2017
-0.22 0.1003
-0.21 -3.535e-11
-0.2 -3.019e-12
-0.19 1.871e-11
-0.18 2.776e-10
-0.17 -1.328e-09
-0.16 3.458e-09
-0.15 5.354e-10
-0.14 2.952e-08
-0.13 -3.284e-09
-0.12 8.845e-08
-0.11 2.022e-06
-0.1 1.759e-05
-0.09 0.002458
-0.08 0.002908
-0.07 0.05349
-0.06 0.0646
-0.05 0.07824
-0.04 0.2118
-0.03 0.266
-0.02 0.365
-0.01 0.4594
0 0.427
0.01 0.569
0.02 0.6779
0.03 0.688
0.04 0.7039
0.05 0.7535
0.06 0.8038
0.07 0.6922
0.08 0.7177
0.09 0.7686
0.1 0.4296
0.11 0.3836
0.12 0.2846
0.13 0.22
0.14 0.1735
0.15 0.1381
0.16 0.05078
0.17 0.01444
0.18 4.365e-07
0.19 7.295e-08
0.2 -2.148e-08
0.21 -4.314e-09
0.22 7.685e-10
0.23 1.623e-10
0.24 -2.741e-12
0.25 -2.275e-11
0.26 2.141e-11
0.27 3.338e-10
0.28 8.706e-09
0.29 -4.032e-13
0.3 1.298e-07
0.31 0.02424
0.32 0.05142
0.33 0.07339
0.34 0.287
0.35 0.1835
0.36 0.4525
0.37 0.4932
0.38 0.691
0.39 0.7028
0.4 0.834
0.41 0.8342
0.42 0.9133
0.43 0.9403
0.44 0.9621
0.45 0.9678
0.46 0.9727
0.47 0.9447
0.48 0.9149
0.49 0.9052
0.5 0.7517
0.51 0.7286
0.52 0.6676
0.53 0.3843
0.54 0.2973
0.55 0.3027
0.56 0.1894
0.57 0.06753
0.58 0.01377
0.59 3.238e-08
0.6 -1.336e-09
0.61 -4.937e-10
0.62 1.289e-11
0.63 6.961e-12
0.64 -1.009e-13
0.65 -8.948e-14
0.66 1.137e-15
0.67 9.485e-16
0.68 -1.729e-17
0.69 -7.375e-18
0.7 2.02e-19
0.71 3.657e-20
0.72 -1.391e-21
0.73 -8.598e-23
0.74 4.2e-24
0.75 0
0.76 0
0.77 0
0.78 0
0.79 0
0.8 0
0.81 0
0.82 0
0.83 0
0.84 0
0.85 0
0.86 0
0.87 0
0.88 0
0.89 0
0.9 0
0.91 0
0.92 0
0.93 0
0.94 0
0.95 3.444e-10
0.96 -1.104e-09
0.97 1.307e-09
0.98 1.986e-08
0.99 -1.364e-07
1 0
ZONE T="timezone" SOLUTIONTIME=0.036
I = 200, F=POINT
-0.99 -3.129e-06
-0.98 7.583e-06
-0.97 -2.563e-06
-0.96 -9.04e-06
-0.95 2.834e-05
-0.94 -2.358e-06
-0.93 -1.544e-05
-0.92 6.432e-05
-0.91 4.524e-05
-0.9 9.909e-05
-0.89 0.0001835
-0.88 0.0003608
-0.87 0.0006415
-0.86 0.006945
-0.85 0.009268
-0.84 0.04248
-0.83 0.05535
-0.82 0.194
-0.81 0.2393
-0.8 0.2822
-0.79 0.4689
-0.78 0.5425
-0.77 0.5633
-0.76 0.6224
-0.75 0.6302
-0.74 0.6235
-0.73 0.3771
-0.72 0.5983
-0.71 0.5176
-0.7 0.2651
-0.69 0.1768
-0.68 0.0894
-0.67 0.04394
-0.66 0.0213
-0.65 0.009578
-0.64 0.003732
-0.63 0.001148
-0.62 0.0002317
-0.61 1.221e-05
-0.6 -1.258e-05
-0.59 -1.526e-06
-0.58 4.979e-07
-0.57 7.473e-08
-0.56 -1.421e-08
-0.55 -1.47e-09
-0.54 6.553e-10
-0.53 -5.949e-11
-0.52 3.646e-09
-0.51 5.256e-09
-0.5 0.02604
-0.49 0.03634
-0.48 0.03176
-0.47 0.248
-0.46 0.3534
-0.45 0.4315
-0.44 0.7897
-0.43 0.7611
-0.42 0.9221
-0.41 1
-0.4 1
-0.39 1
-0.38 1
-0.37 1
-0.36 1
-0.35 1
-0.34 1
-0.33 1
-0.32 1
-0.31 1
-0.3 0.974
-0.29 0.9637
-0.28 0.9682
-0.27 0.752
-0.26 0.6466
-0.25 0.5685
-0.24 0.2103
-0.23 0.2389
-0.22 0.07786
-0.21 -9.87e-11
-0.2 -3.835e-10
-0.19 1.229e-09
-0.18 -1.029e-09
-0.17 6.356e-09
-0.16 -6.234e-09
-0.15 2.953e-08
-0.14 4.415e-07
-0.13 3.327e-06
-0.12 8.75e-06
-0.11 2.188e-05
-0.1 0.001163
-0.09 0.001908
-0.08 0.03661
-0.07 0.04754
-0.06 0.05969
-0.05 0.2209
-0.04 0.176
-0.03 0.2968
-0.02 0.3684
-0.01 0.5225
0 0.4515
0.01 0.6022
0.02 0.6709
0.03 0.6882
0.04 0.7353
0.05 0.7357
0.06 0.8323
0.07 0.6669
0.08 0.7023
0.09 0.5755
0.1 0.472
0.11 0.3365
0.12 0.2737
0.13 0.2065
0.14 0.1883
0.15 0.06841
0.16 0.04988
0.17 0.01237
0.18 4.425e-07
0.19 7.052e-08
0.2 -2.213e-08
0.21 -4.501e-09
0.22 8.275e-10
0.23 2.065e-10
0.24 5.168e-11
0.25 1.809e-09
0.26 -2.324e-09
0.27 3.137e-08
0.28 5.252e-09
0.29 2.797e-07
0.3 0.01846
0.31 0.02928
0.32 0.04342
0.33 0.1793
0.34 0.2823
0.35 0.3772
0.36 0.3646
0.37 0.6272
0.38 0.6333
0.39 0.7847
0.4 0.8016
0.41 0.8738
0.42 0.9068
0.43 0.9488
0.44 0.9604
0.45 0.9657
0.46 0.9583
0.47 0.9382
0.48 0.9205
0.49 0.7847
0.5 0.7832
0.51 0.741
0.52 0.5067
0.53 0.3557
0.54 0.2552
0.55 0.2887
0.56 0.151
0.57 0.05962
0.58 0.0119
0.59 5.626e-08
0.6 -2.417e-09
0.61 -8.319e-10
0.62 1.979e-11
0.63 1.213e-11
0.64 -1.357e-13
0.65 -1.628e-13
0.66 7.018e-16
0.67 1.934e-15
0.68 -1.155e-17
0.69 -1.855e-17
0.7 2.476e-19
0.71 1.298e-19
0.72 -3.045e-21
0.73 -5.795e-22
0.74 2.002e-23
0.75 1.23e-24
0.76 -5.6e-26
0.77 0
0.78 0
0.79 0
0.8 0
0.81 0
0.82 0
0.83 0
0.84 0
0.85 0
0.86 0
0.87 0
0.88 0
0.89 0
0.9 0
0.91 0
0.92 7.577e-11
0.93 -3.394e-10
0.94 6.978e-10
0.95 3.941e-09
0.96 -3.601e-08
0.97 4.497e-08
0.98 -3.389e-07
0.99 6.89e-07
1 0
ZONE T="timezone" SOLUTIONTIME=0.04
I = 200, F=POINT
-0.99 -1.437e-06
-0.98 1.368e-05
-0.97 -1.277e-05
-0.96 -1.522e-06
-0.95 3.892e-05
-0.94 -1.34e-05
-0.93 1.598e-05
-0.92 7.45e-05
-0.91 9.26e-05
-0.9 0.000169
-0.89 0.0001957
-0.88 0.0002935
-0.87 0.004003
-0.86 0.005271
-0.85 0.02825
-0.84 0.0335
-0.83 0.1638
-0.82 0.1783
-0.81 0.2225
-0.8 0.4129
-0.79 0.5095
-0.78 0.5142
-0.77 0.5788
-0.76 0.6278
-0.75 0.63
-0.74 0.5465
-0.73 0.2692
-0.72 0.6935
-0.71 0.3767
-0.7 0.2932
-0.69 0.1456
-0.68 0.07914
-0.67 0.04014
-0.66 0.01933
-0.65 0.008554
-0.64 0.003368
-0.63 0.001056
-0.62 0.000214
-0.61 7.031e-06
-0.6 -1.267e-05
-0.59 -1.453e-06
-0.58 5.411e-07
-0.57 8.348e-08
-0.56 -1.657e-08
-0.55 -1.387e-09
-0.54 7.76e-10
-0.53 1.066e-08
-0.52 3.996e-08
-0.51 0.01206
-0.5 0.02759
-0.49 0.03622
-0.48 0.1895
-0.47 0.2318
-0.46 0.3214
-0.45 0.72
-0.44 0.7247
-0.43 0.804
-0.42 0.9327
-0.41 1
-0.4 1
-0.39 1
-0.38 1
-0.37 1
-0.36 1
-0.35 1
-0.34 1
-0.33 1
-0.32 1
-0.31 0.9879
-0.3 0.9724
-0.29 0.9638
-0.28 0.8105
-0.27 0.7682
-0.26 0.6786
-0.25 0.28
-0.24 0.2753
-0.23 0.196
-0.22 0.06728
-0.21 -1.669e-09
-0.2 1.778e-09
-0.19 -2.525e-09
-0.18 9.355e-09
-0.17 9.184e-08
-0.16 6.125e-07
-0.15 1.145e-06
-0.14 3.676e-06
-0.13 5.035e-05
-0.12 0.000155
-0.11 0.0004467
-0.1 0.0008032
-0.09 0.02796
-0.08 0.03156
-0.07 0.04302
-0.06 0.1581
-0.05 0.2215
-0.04 0.2542
-0.03 0.22
-0.02 0.46
-0.01 0.5414
0 0.4906
0.01 0.6401
0.02 0.6475
0.03 0.7045
0.04 0.7303
0.05 0.747
0.06 0.7594
0.07 0.6518
0.08 0.6366
0.09 0.6135
0.1 0.3584
0.11 0.3609
0.12 0.2512
0.13 0.2173
0.14 0.09603
0.15 0.0864
0.16 0.03861
0.17 0.01069
0.18 4.681e-07
0.19 6.736e-08
0.2 -2.281e-08
0.21 -4.608e-09
0.22 1.278e-09
0.23 -7.691e-10
0.24 8.115e-09
0.25 -6.936e-09
0.26 6.752e-08
0.27 2.387e-08
0.28 1.258e-07
0.29 0.01853
0.3 0.01151
0.31 0.02708
0.32 0.1629
0.33 0.1681
0.34 0.301
0.35 0.3872
0.36 0.5661
0.37 0.5549
0.38 0.7275
0.39 0.75
0.4 0.8533
0.41 0.8551
0.42 0.925
0.43 0.9479
0.44 0.9566
0.45 0.9618
0.46 0.9526
0.47 0.9453
0.48 0.8243
0.49 0.8091
0.5 0.7868
0.51 0.5621
0.52 0.5102
0.53 0.3485
0.54 0.1947
0.55 0.2469
0.56 0.1391
0.57 0.04719
0.58 0.0101
0.59 9.21e-08
0.6 -3.649e-09
0.61 -1.428e-09
0.62 3.419e-11
0.63 2.071e-11
0.64 -1.719e-13
0.65 -2.884e-13
0.66 -3.463e-16
0.67 3.656e-15
0.68 1.506e-17
0.69 -4.007e-17
0.7 9.92e-21
0.71 3.502e-19
0.72 -3.195e-21
0.73 -2.226e-21
0.74 4.46e-23
0.75 9.046e-24
0.76 -2.848e-25
0.77 -1.753e-26
0.78 7.467e-28
0.79 0
0.8 0
0.81 0
0.82 0
0.83 0
0.84 0
0.85 0
0.86 0
0.87 0
0.88 0
0.89 1.667e-11
0.9 -9.588e-11
0.91 2.708e-10
0.92 6.297e-10
0.93 -9.077e-09
0.94 2.166e-08
0.95 -9.469e-08
0.96 2.323e-07
0.97 -2.589e-07
0.98 -7.425e-07
0.99 3.06e-06
1 0
ZONE T="timezone" SOLUTIONTIME=0.044
I = 200, F=POINT
-0.99 6.098e-06
-0.98 1.563e-05
-0.97 -2.351e-05
-0.96 1.682e-05
-0.95 3.788e-05
-0.94 -5.311e-06
-0.93 4.448e-05
-0.92 7.988e-05
-0.91 0.0001312
-0.9 0.0001676
-0.89 0.0001882
-0.88 0.002199
-0.87 0.003039
-0.86 0.01758
-0.85 0.02284
-0.84 0.1272
-0.83 0.1407
-0.82 0.172
-0.81 0.3408
-0.8 0.4613
-0.79 0.4975
-0.78 0.5295
-0.77 0.5795
-0.76 0.6261
-0.75 0.6146
-0.74 0.5193
-0.73 0.235
-0.72 0.55
-0.71 0.444
-0.7 0.2243
-0.69 0.1417
-0.68 0.07149
-0.67 0.03555
-0.66 0.01718
-0.65 0.007713
-0.64 0.003061
-0.63 0.000968
-0.62 0.0001941
-0.61 1.869e-06
-0.6 -1.265e-05
-0.59 -1.32e-06
-0.58 5.8e-07
-0.57 8.934e-08
-0.56 -1.642e-08
-0.55 3.536e-09
-0.54 1e-07
-0.53 3.172e-06
-0.52 0.008284
-0.51 0.0163
-0.5 0.02345
-0.49 0.1788
-0.48 0.1444
-0.47 0.2127
-0.46 0.5819
-0.45 0.7247
-0.44 0.7182
-0.43 0.8465
-0.42 0.9447
-0.41 1
-0.4 1
-0.39 1
-0.38 1
-0.37 1
-0.36 1
-0.35 1
-0.34 1
-0.33 1
-0.32 0.9917
-0.31 0.9837
-0.3 0.9766
-0.29 0.8212
-0.28 0.8556
-0.27 0.7873
-0.26 0.4181
-0.25 0.2753
-0.24 0.2819
-0.23 0.1535
-0.22 0.05528
-0.21 3.963e-09
-0.2 1.777e-08
-0.19 1.099e-07
-0.18 1.144e-07
-0.17 7.377e-07
-0.16 1.082e-05
-0.15 2.193e-05
-0.14 6.979e-05
-0.13 0.0001368
-0.12 0.0001886
-0.11 0.0003447
-0.1 0.02114
-0.09 0.02187
-0.08 0.02868
-0.07 0.1236
-0.06 0.1573
-0.05 0.2148
-0.04 0.272
-0.03 0.3085
-0.02 0.483
-0.01 0.5435
0 0.5737
0.01 0.6118
0.02 0.6751
0.03 0.7066
0.04 0.7295
0.05 0.7431
0.06 0.7034
0.07 0.6626
0.08 0.6442
0.09 0.4238
0.1 0.4142
0.11 0.2845
0.12 0.2934
0.13 0.1285
0.14 0.1179
0.15 0.06881
0.16 0.03539
0.17 0.008286
0.18 4.917e-07
0.19 6.409e-08
0.2 -2.411e-08
0.21 -2.481e-09
0.22 -2.84e-09
0.23 1.868e-08
0.24 -9.554e-09
0.25 3.57e-08
0.26 7.322e-08
0.27 5.478e-08
0.28 0.00954
0.29 0.01522
0.3 0.01038
0.31 0.1288
0.32 0.1555
0.33 0.2707
0.34 0.2181
0.35 0.5326
0.36 0.5459
0.37 0.6772
0.38 0.6754
0.39 0.8151
0.4 0.8278
0.41 0.8828
0.42 0.9279
0.43 0.9468
0.44 0.9536
0.45 0.9606
0.46 0.9559
0.47 0.8719
0.48 0.8346
0.49 0.8166
0.5 0.5652
0.51 0.6055
0.52 0.4731
0.53 0.3279
0.54 0.1335
0.55 0.2486
0.56 0.1142
0.57 0.0417
0.58 0.008781
0.59 1.489e-07
0.6 -5.74e-09
0.61 -2.382e-09
0.62 5.213e-11
0.63 3.55e-11
0.64 -2.56e-13
0.65 -4.999e-13
0.66 -2.68e-15
0.67 6.633e-15
0.68 7.75e-17
0.69 -7.899e-17
0.7 -8.916e-19
0.71 8.004e-19
0.72 3.78e-21
0.73 -6.414e-21
0.74 3.47e-23
0.75 3.737e-23
0.76 -6.355e-25
0.77 -1.394e-25
0.78 4.015e-27
0.79 2.486e-28
0.8 -9.955e-30
0.81 0
0.82 0
0.83 0
0.84 0
0.85 0
0.86 3.667e-12
0.87 -2.576e-11
0.88 9.13e-11
0.89 4.726e-11
0.9 -2.166e-09
0.91 7.694e-09
0.92 -2.907e-08
0.93 7.709e-08
0.94 -1.335e-07
0.95 -9.411e-08
0.96 9.794e-07
0.97 -1.265e-06
0.98 8.763e-09
0.99 5.725e-06
1 0
ZONE T="timezone" SOLUTIONTIME=0.048
I = 200, F=POINT
-0.99 1.928e-05
-0.98 8.867e-06
-0.97 -2.442e-05
-0.96 3.422e-05
-0.95 3.326e-05
-0.94 1.61e-05
-0.93 5.658e-05
-0.92 9.468e-05
-0.91 0.0001534
-0.9 0.0002148
-0.89 0.001165
-0.88 0.001649
-0.87 0.01108
-0.86 0.01374
-0.85 0.09552
-0.84 0.1112
-0.83 0.1337
-0.82 0.2857
-0.81 0.3893
-0.8 0.4685
-0.79 0.4884
-0.78 0.5538
-0.77 0.5769
-0.76 0.6221
-0.75 0.5975
-0.74 0.4625
-0.73 0.1097
-0.72 0.6523
-0.71 0.3282
-0.7 0.2418
-0.69 0.1189
-0.68 0.06317
-0.67 0.03235
-0.66 0.01547
-0.65 0.006935
-0.64 0.002773
-0.63 0.0008845
-0.62 0.0001731
-0.61 -3.029e-06
-0.6 -1.249e-05
-0.59 -1.141e-06
-0.58 6.146e-07
-0.57 1.133e-07
-0.56 6.525e-07
-0.55 4.534e-09
-0.54 4.688e-06
-0.53 0.006582
-0.52 0.008895
-0.51 0.01407
-0.5 0.1196
-0.49 0.1439
-0.48 0.1531
-0.47 0.4065
-0.46 0.6408
-0.45 0.7306
-0.44 0.7563
-0.43 0.8583
-0.42 0.9615
-0.41 1
-0.4 1
-0.39 1
-0.38 1
-0.37 1
-0.36 1
-0.35 1
-0.34 1